ITEM: TIMESTEP
0
ITEM: NUMBER OF ATOMS
10000
ITEM: BOX BOUNDS pp pp pp
-1.8710704553454036e+00 8.1929670455345558e+01
-1.8710704553454036e+00 8.1929670455345558e+01
-1.8710704553454036e+00 8.1929670455345558e+01
ITEM: ATOMS id type xs ys zs
5403 1 0.0321759 0.0615547 0.008304
5404 1 0.0341057 0.044794 0.0147805
5405 1 0.0324585 0.0445612 0.0328679
5406 1 0.0321156 0.0283514 0.0401378
5407 1 0.0151147 0.0211656 0.0423039
5408 1 0.0148327 0.00560643 0.0517109
5168 1 0.0800083 0.00705509 0.0279935
5171 1 0.0742864 0.0465749 0.0461955
5159 1 0.131199 0.0333556 0.0510249
5169 1 0.0837412 0.0249854 0.0273723
5170 1 0.0835631 0.0310643 0.0449547
5172 1 0.0847807 0.0614375 0.042183
5156 1 0.120598 0.0513373 0.0212474
5155 1 0.119047 0.0641096 0.00780636
5161 1 0.134772 0.00377816 0.0543474
5160 1 0.141404 0.0185327 0.0459139
1032 1 0.183447 0.0560668 0.0447812
1033 1 0.182978 0.0630422 0.0616393
5158 1 0.137672 0.0489998 0.0448223
1030 1 0.197578 0.0585371 0.0195337
5157 1 0.137897 0.0484653 0.0263813
1038 1 0.186905 0.000770167 0.0604798
1026 1 0.243395 0.0380579 0.0514953
1027 1 0.229137 0.0334713 0.0407097
1028 1 0.222728 0.0484735 0.0315841
1029 1 0.20691 0.0437151 0.0237284
9182 1 0.266478 0.0217311 0.00255989
9184 1 0.267932 0.0514998 0.0103713
9185 1 0.285009 0.0563659 0.0150469
9186 1 0.295274 0.0440421 0.0231043
9189 1 0.294784 0.0114163 0.0520844
9190 1 0.311239 0.00375646 0.0542339
9187 1 0.287745 0.0395024 0.039624
9191 1 0.322276 0.0058508 0.0394071
9188 1 0.298184 0.0289653 0.0498064
9192 1 0.340244 0.00329142 0.0431134
9193 1 0.345863 0.0175057 0.0534315
9194 1 0.341913 0.0339262 0.0458157
9195 1 0.347287 0.0468758 0.0571396
9170 1 0.372007 0.058696 0.00146533
9559 1 0.388526 0.00473923 0.0193594
9196 1 0.344204 0.0642052 0.0517564
9560 1 0.405239 0.0115994 0.0194288
9561 1 0.409252 0.0194176 0.00409042
9562 1 0.424545 0.0292647 0.00798971
4958 1 0.460745 0.016574 0.0374148
4957 1 0.459073 0.0345232 0.0408673
4959 1 0.478429 0.0136123 0.0337257
4951 1 0.521296 0.0533354 0.0320139
4956 1 0.469486 0.0376489 0.0552339
4954 1 0.482132 0.0641072 0.0471121
4952 1 0.506996 0.0478727 0.0414596
4953 1 0.500216 0.062512 0.0501355
4955 1 0.471793 0.0552227 0.058892
4950 1 0.535522 0.0575273 0.0421008
9512 1 0.570504 0.00428084 0.0291772
9513 1 0.580367 0.00376677 0.0443503
4949 1 0.5485 0.0649793 0.0309582
4939 1 0.606628 0.0505127 0.0144107
9497 1 0.643906 0.0176995 0.0220945
9498 1 0.6281 0.0118029 0.0298104
9496 1 0.650917 0.032538 0.0301453
9495 1 0.661787 0.0395805 0.0177226
9494 1 0.672903 0.0529005 0.0236534
9492 1 0.696923 0.0479961 0.00547687
9493 1 0.689736 0.0466209 0.022066
9491 1 0.712556 0.0388944 0.00489879
9464 1 0.674505 0.00375242 0.0571453
2884 1 0.728072 0.0203267 0.0637907
9487 1 0.757389 0.0342598 0.00151982
9488 1 0.74235 0.0233548 0.00216789
2888 1 0.787351 0.017687 0.0485873
2889 1 0.787925 0.00655534 0.0345931
2886 1 0.756951 0.0184723 0.0531188
2887 1 0.77357 0.0148997 0.0601908
6953 1 0.860164 0.0608057 0.0483822
2890 1 0.805023 0.00868261 0.0273575
2891 1 0.816725 0.00302838 0.0399383
6950 1 0.820454 0.0590995 0.0316779
6951 1 0.838077 0.0566503 0.0284619
6949 1 0.817871 0.0530101 0.0482277
2892 1 0.834165 0.00622087 0.0359655
6948 1 0.801648 0.0584039 0.0540497
5436 1 0.912953 0.0173357 0.0323751
5437 1 0.903357 0.00456278 0.0237353
5438 1 0.885324 0.00659912 0.0259338
6880 1 0.903721 0.0602424 0.00954165
5435 1 0.90841 0.0194436 0.0505994
5434 1 0.919419 0.032766 0.0567518
5454 1 0.982968 0.00119288 0.00752068
5455 1 0.968921 0.00715549 0.0166322
5456 1 0.972535 0.00888533 0.0345954
5457 1 0.958686 0.0176622 0.0428919
5458 1 0.965905 0.0273146 0.0565579
5459 1 0.974261 0.0426259 0.0501806
5460 1 0.961527 0.0528997 0.0414277
5461 1 0.968585 0.0569126 0.0251074
5402 1 0.0370946 0.071884 0.022556
5398 1 0.0319717 0.0977643 0.0644629
5400 1 0.0358112 0.0981363 0.0346871
5399 1 0.0250217 0.0940517 0.0483141
5401 1 0.0312575 0.0886383 0.0197672
5173 1 0.0894441 0.0696758 0.0577751
5154 1 0.128237 0.0794569 0.012651
5174 1 0.0963929 0.085939 0.05468
5177 1 0.126834 0.106591 0.0605984
5153 1 0.125919 0.0926085 0.000539802
5176 1 0.109501 0.110842 0.0657326
5178 1 0.137384 0.121539 0.063239
1031 1 0.194195 0.0670427 0.0352446
4059 1 0.193917 0.116047 0.0366777
4060 1 0.180373 0.114608 0.0486833
4061 1 0.183154 0.104991 0.0642381
4058 1 0.205175 0.13081 0.0394889
1020 1 0.250106 0.0937135 0.0416175
1021 1 0.246778 0.0961869 0.0589389
1023 1 0.25701 0.0694115 0.0648945
1018 1 0.25914 0.104435 0.0165566
1019 1 0.254755 0.109255 0.033829
1016 1 0.247801 0.131199 0.00409266
1017 1 0.261929 0.119554 0.00593354
1022 1 0.242492 0.0804121 0.0665258
9169 1 0.369474 0.0764455 0.00653718
4023 1 0.348986 0.118411 0.0112736
4024 1 0.342849 0.126562 0.0263299
9167 1 0.387451 0.0780103 0.0307737
9168 1 0.385388 0.0833465 0.013017
9198 1 0.342646 0.0914411 0.063417
9163 1 0.446604 0.0762225 0.0247335
9166 1 0.403124 0.0848711 0.0373245
9165 1 0.417378 0.0764711 0.0291263
9164 1 0.432702 0.086522 0.0306471
4718 1 0.41926 0.128162 0.0435207
4720 1 0.436745 0.121553 0.064928
9162 1 0.457046 0.0856268 0.0124983
4729 1 0.506033 0.112528 0.0395312
4730 1 0.504004 0.128443 0.0322021
4728 1 0.49734 0.112228 0.0554655
4731 1 0.486253 0.132075 0.0300604
4944 1 0.589002 0.114113 0.0169062
4945 1 0.573805 0.108426 0.0261004
4946 1 0.559571 0.102403 0.0163559
4947 1 0.546757 0.095365 0.0279958
4943 1 0.593997 0.0986129 0.00919522
4948 1 0.553926 0.0812609 0.0372586
4940 1 0.606037 0.0691793 0.0170036
4942 1 0.611849 0.0966669 0.0104758
4941 1 0.615131 0.0792412 0.00522404
6757 1 0.659603 0.112112 0.0403612
6756 1 0.664755 0.118998 0.0563787
6758 1 0.672192 0.116084 0.0280169
6759 1 0.683452 0.101299 0.0267727
6761 1 0.711009 0.0949324 0.0150653
6760 1 0.699717 0.107458 0.0209407
6762 1 0.727865 0.102043 0.0122605
2747 1 0.717152 0.0892557 0.0658015
2748 1 0.724559 0.105692 0.063023
2749 1 0.712415 0.119256 0.0604261
6763 1 0.739823 0.0895635 0.00557793
6764 1 0.74125 0.0755184 0.0173345
6766 1 0.766569 0.0892489 0.0258793
6767 1 0.773104 0.0991749 0.0401305
6765 1 0.751185 0.08085 0.0313026
6768 1 0.790703 0.102156 0.0354518
6769 1 0.797366 0.107229 0.0515635
6952 1 0.847119 0.0686178 0.038297
6772 1 0.842281 0.108445 0.0664054
6770 1 0.816125 0.104517 0.0519997
6771 1 0.826028 0.115551 0.0632695
6954 1 0.870584 0.0723457 0.0566527
6879 1 0.915275 0.0721655 0.0169987
6863 1 0.884154 0.12963 0.0239764
6864 1 0.895288 0.130577 0.00947278
6865 1 0.909778 0.119113 0.0104582
6877 1 0.91447 0.0873354 0.0428517
6878 1 0.913194 0.0709644 0.0352665
6876 1 0.92204 0.086501 0.0588219
6874 1 0.925862 0.114505 0.0526177
6875 1 0.918218 0.103327 0.0643519
5462 1 0.959083 0.0696822 0.0160597
5466 1 0.993636 0.108647 0.00484226
5465 1 0.979164 0.0970248 0.00815428
5467 1 0.991268 0.121923 0.0175385
6872 1 0.951609 0.126265 0.043673
6873 1 0.94401 0.115017 0.0551841
5468 1 0.00496721 0.134371 0.0166383
5469 1 0.00491992 0.143146 0.0013039
5470 1 0.016453 0.15701 0.00476682
5190 1 0.0659248 0.168837 0.0599249
5191 1 0.0478469 0.169834 0.06271
5186 1 0.105323 0.180178 0.0368489
5184 1 0.122584 0.178664 0.0118688
5185 1 0.105514 0.176149 0.0186626
5187 1 0.0888422 0.175725 0.0437778
5188 1 0.0873449 0.15792 0.0457156
5189 1 0.0697272 0.156311 0.0476963
5179 1 0.130761 0.135065 0.0533268
5180 1 0.135967 0.134016 0.035574
5183 1 0.133522 0.163893 0.012373
5181 1 0.148526 0.146396 0.0330665
5182 1 0.140199 0.162985 0.0298064
4057 1 0.199026 0.147399 0.0340847
4056 1 0.213159 0.159128 0.0366602
1010 1 0.246683 0.189969 0.0227927
4055 1 0.209628 0.169605 0.0511734
1011 1 0.241824 0.198043 0.0073592
1007 1 0.262795 0.165075 0.0379442
1009 1 0.263668 0.194231 0.0289227
4054 1 0.224518 0.178036 0.0573834
1005 1 0.262683 0.152775 0.0655881
4025 1 0.327389 0.134514 0.0211271
1006 1 0.270075 0.153379 0.0491384
1008 1 0.266922 0.18243 0.0426722
4029 1 0.311339 0.173623 0.00664249
4030 1 0.294404 0.179355 0.00440411
4028 1 0.313709 0.168762 0.0235371
4027 1 0.306099 0.152829 0.0279654
4026 1 0.319154 0.142698 0.0353005
4714 1 0.373026 0.16406 0.0328002
4711 1 0.359045 0.199415 0.00793568
4712 1 0.365112 0.182643 0.0115969
4713 1 0.366212 0.180393 0.0292385
4715 1 0.390461 0.161419 0.0282611
4716 1 0.398235 0.149452 0.0394278
4719 1 0.43008 0.135827 0.0557248
4717 1 0.413117 0.141384 0.0323414
1768 1 0.437007 0.19402 0.0417246
4733 1 0.476074 0.139906 0.0029866
4732 1 0.484475 0.145223 0.0178657
1747 1 0.539372 0.168255 0.0539504
1748 1 0.550013 0.15856 0.0437888
1750 1 0.558295 0.15208 0.0151194
1745 1 0.559018 0.190346 0.0574095
1746 1 0.542469 0.185997 0.0500789
1749 1 0.545886 0.160736 0.0260889
6755 1 0.661634 0.136883 0.058845
2732 1 0.61438 0.133731 0.0468376
2730 1 0.62734 0.138226 0.0194291
2731 1 0.619485 0.146108 0.0343527
2725 1 0.64173 0.194408 0.0251957
2728 1 0.647355 0.160179 0.0149529
2729 1 0.633448 0.151077 0.00778586
2726 1 0.639185 0.188304 0.00834556
2727 1 0.65122 0.174752 0.00436072
2724 1 0.626876 0.19191 0.0349185
2723 1 0.627168 0.199642 0.051329
2733 1 0.60628 0.142196 0.0601974
2722 1 0.617272 0.189635 0.0623894
2750 1 0.720915 0.135298 0.0572369
2777 1 0.701391 0.191724 0.00346614
2778 1 0.710213 0.178814 0.0125712
2779 1 0.699813 0.170793 0.0250706
2780 1 0.697324 0.18346 0.0375519
2781 1 0.712384 0.189053 0.0463546
6793 1 0.764295 0.183561 0.042491
6794 1 0.757175 0.185133 0.0258215
6795 1 0.770828 0.192546 0.0158298
6920 1 0.791187 0.145967 0.00163672
6792 1 0.770847 0.167348 0.0459078
6921 1 0.79787 0.138349 0.0167523
6791 1 0.783116 0.17043 0.059045
6922 1 0.814786 0.145208 0.0195838
6923 1 0.815811 0.162439 0.0270476
6924 1 0.827355 0.162307 0.0409996
6925 1 0.827362 0.177668 0.0504271
6857 1 0.860266 0.186318 0.00152687
6858 1 0.860006 0.191712 0.0192303
6926 1 0.836551 0.174958 0.0662614
6862 1 0.887688 0.143323 0.0358579
6860 1 0.873305 0.169033 0.0346206
6861 1 0.887032 0.158699 0.026922
6859 1 0.875288 0.185484 0.027419
6868 1 0.939665 0.137765 0.00991039
6870 1 0.950035 0.15372 0.0337725
6869 1 0.944323 0.154897 0.0159193
6871 1 0.941444 0.141612 0.0446398
4048 1 0.27471 0.232866 0.0614763
4046 1 0.280615 0.236075 0.0329716
4047 1 0.280646 0.244927 0.04901
4044 1 0.27805 0.241931 0.0030759
4045 1 0.285885 0.24728 0.0190766
1777 1 0.341183 0.263781 0.0284066
1778 1 0.338024 0.247722 0.0364704
1779 1 0.337311 0.251168 0.0540803
1775 1 0.367078 0.256599 0.0215573
1774 1 0.383639 0.253793 0.0275826
1773 1 0.385341 0.23625 0.0314314
1771 1 0.397547 0.217127 0.048919
1780 1 0.335749 0.236282 0.0638475
1781 1 0.349768 0.225284 0.0596781
1766 1 0.443255 0.205079 0.0155492
1767 1 0.449862 0.203321 0.0323248
1769 1 0.424208 0.205028 0.0493653
1765 1 0.453993 0.217485 0.00710323
1772 1 0.400745 0.232927 0.0399105
1770 1 0.407719 0.203788 0.0416051
1764 1 0.471737 0.212265 0.00870058
1761 1 0.508385 0.214912 0.0136981
1760 1 0.523685 0.209384 0.00708829
1763 1 0.481855 0.226458 0.00305632
9067 1 0.520566 0.262561 0.046188
9060 1 0.488224 0.22302 0.0606064
9061 1 0.474348 0.234407 0.0646552
9066 1 0.526835 0.263827 0.0636352
1759 1 0.535652 0.222261 0.00268831
1757 1 0.558007 0.202878 0.00401767
6524 1 0.593624 0.241476 0.0333515
6525 1 0.583666 0.253505 0.0433715
6526 1 0.585727 0.252785 0.0615552
6523 1 0.607721 0.249972 0.0250987
6522 1 0.617807 0.23935 0.013906
6538 1 0.664531 0.25856 0.0600396
6537 1 0.646424 0.260117 0.0608895
6539 1 0.668774 0.241258 0.0557752
2769 1 0.687416 0.252453 0.0117082
2768 1 0.701314 0.250702 0.0233341
2767 1 0.713962 0.24068 0.015018
2766 1 0.727723 0.236156 0.0261334
2782 1 0.707792 0.201489 0.0590495
2765 1 0.735673 0.251638 0.0301452
2762 1 0.764503 0.235342 0.0620604
2763 1 0.748437 0.238293 0.0538671
2764 1 0.751386 0.248612 0.0390832
497 1 0.797207 0.251797 0.0162696
492 1 0.856112 0.244971 0.0100641
493 1 0.844542 0.241708 0.0238244
494 1 0.830048 0.23318 0.0181732
495 1 0.81634 0.234748 0.0302193
496 1 0.810318 0.252077 0.028991
491 1 0.870771 0.234654 0.0123058
489 1 0.899867 0.234408 0.00173751
490 1 0.88372 0.242769 0.00179892
860 1 0.0239144 0.304206 0.0317989
859 1 0.026313 0.319288 0.0220955
861 1 0.0343778 0.30517 0.046226
858 1 0.0429908 0.319076 0.0144143
862 1 0.0262152 0.313353 0.0604437
863 1 0.0232178 0.331441 0.0598501
824 1 0.138145 0.328666 0.0156586
807 1 0.162402 0.268561 0.00356148
809 1 0.182701 0.290024 0.00293588
811 1 0.203788 0.311398 0.00715374
812 1 0.220448 0.316828 0.00180168
810 1 0.200911 0.293335 0.00270027
1776 1 0.357986 0.269067 0.0315183
9073 1 0.45343 0.290535 0.0162887
9074 1 0.445346 0.306823 0.018578
9075 1 0.456585 0.320798 0.0141286
9068 1 0.517203 0.278784 0.0388912
9071 1 0.475622 0.272483 0.0225086
9069 1 0.499286 0.281385 0.0382714
9070 1 0.493355 0.271885 0.0239235
9072 1 0.47082 0.290037 0.0221407
6497 1 0.508189 0.325366 0.0196446
6498 1 0.523414 0.32304 0.00986537
6499 1 0.52555 0.305213 0.00604836
6502 1 0.560272 0.285875 0.00429942
1725 1 0.534501 0.31453 0.0598581
1726 1 0.551484 0.309719 0.0640108
6503 1 0.573459 0.298433 0.00240843
6684 1 0.625406 0.299989 0.0357546
6682 1 0.629596 0.301138 0.00612274
6683 1 0.638424 0.30078 0.0224416
6685 1 0.616795 0.315691 0.0376363
6686 1 0.62541 0.325285 0.0503706
6687 1 0.622799 0.317224 0.0665509
6582 1 0.703838 0.313203 0.0138626
6583 1 0.712933 0.29857 0.0193127
6584 1 0.720397 0.298422 0.0359825
6585 1 0.709191 0.290518 0.0479083
6605 1 0.676088 0.332563 0.0531095
6581 1 0.715322 0.32437 0.00561506
6586 1 0.718514 0.284781 0.0622886
498 1 0.791016 0.268945 0.0146216
499 1 0.779662 0.271265 0.000236405
6595 1 0.774724 0.315085 0.0507719
6596 1 0.772683 0.328774 0.0624277
6594 1 0.777159 0.299536 0.0601099
520 1 0.825532 0.291794 0.0632082
517 1 0.823462 0.304147 0.0182937
519 1 0.819198 0.301227 0.0489116
518 1 0.826942 0.294905 0.0339293
516 1 0.837748 0.301494 0.00675739
521 1 0.842941 0.294802 0.063079
527 1 0.877144 0.305267 0.0310318
528 1 0.871697 0.321194 0.0239667
529 1 0.877951 0.322957 0.00715612
524 1 0.876642 0.280908 0.055507
525 1 0.891652 0.290633 0.0521224
526 1 0.885266 0.30725 0.0473291
530 1 0.89565 0.32413 0.0048388
901 1 0.929232 0.31481 0.045184
898 1 0.935503 0.281026 0.0488841
899 1 0.940101 0.290234 0.0342765
900 1 0.943977 0.307217 0.0387876
897 1 0.949291 0.278233 0.0594691
902 1 0.934128 0.331671 0.0482964
853 1 0.0434515 0.387919 0.0226351
854 1 0.0399083 0.369487 0.0207615
855 1 0.0557282 0.361825 0.0259783
856 1 0.0552689 0.343768 0.0270904
857 1 0.0483424 0.336756 0.0120831
852 1 0.0309364 0.39911 0.0156539
841 1 0.00434235 0.354776 0.000838158
826 1 0.127073 0.34873 0.0338677
827 1 0.121604 0.36601 0.0344604
828 1 0.107683 0.36606 0.0228954
829 1 0.101295 0.382804 0.0211442
830 1 0.0922435 0.38335 0.00504847
825 1 0.130983 0.34507 0.0164335
831 1 0.0853539 0.399969 0.00484847
813 1 0.220214 0.335137 0.00214514
6495 1 0.491835 0.346381 0.0325451
6496 1 0.508429 0.342272 0.0271448
6494 1 0.489846 0.363649 0.0372268
6493 1 0.494003 0.373598 0.0231352
6492 1 0.49172 0.39173 0.0250863
6491 1 0.498742 0.399702 0.0105152
1717 1 0.528979 0.391484 0.0572104
1718 1 0.529333 0.373727 0.0626226
6674 1 0.608497 0.386578 0.0266565
6676 1 0.626198 0.368294 0.0103923
6673 1 0.620564 0.393584 0.0382456
6675 1 0.615283 0.383129 0.0105156
6672 1 0.611955 0.394063 0.054345
6604 1 0.673706 0.351266 0.0519711
6603 1 0.688524 0.360435 0.0561016
6602 1 0.696611 0.364284 0.0406641
6600 1 0.724003 0.354957 0.0489334
6601 1 0.714522 0.369166 0.0427143
6580 1 0.706291 0.339272 0.0025386
6598 1 0.74833 0.341698 0.0531908
6597 1 0.766673 0.343949 0.0543928
6599 1 0.741594 0.35822 0.0498214
6574 1 0.763516 0.391241 0.000548742
6573 1 0.767338 0.398947 0.0167551
6575 1 0.745331 0.388723 0.00210764
933 1 0.840835 0.374039 0.0569666
934 1 0.84432 0.391845 0.0579098
932 1 0.854325 0.363935 0.0630951
903 1 0.919311 0.342306 0.049687
904 1 0.924718 0.358573 0.0551411
556 1 0.939877 0.35783 0.0087291
842 1 0.990823 0.365802 0.00611762
851 1 0.0366214 0.415922 0.0198333
850 1 0.0252259 0.428364 0.0120508
780 1 0.0947081 0.420441 0.0616201
781 1 0.09143 0.438103 0.0653201
782 1 0.089939 0.447872 0.0501351
783 1 0.106146 0.445444 0.0419189
784 1 0.12095 0.45063 0.051916
785 1 0.13583 0.445992 0.0429195
786 1 0.135807 0.429836 0.0353429
788 1 0.148752 0.411282 0.0162394
789 1 0.165182 0.40713 0.00882867
787 1 0.15082 0.42676 0.025744
6490 1 0.516916 0.400437 0.0107391
1626 1 0.526048 0.447377 0.00617548
1622 1 0.563975 0.44918 0.0412106
1623 1 0.546693 0.452544 0.0472814
1624 1 0.535743 0.457036 0.0331611
1625 1 0.53691 0.44471 0.0198373
1621 1 0.573682 0.448465 0.0572706
1620 1 0.587378 0.437281 0.0544237
1619 1 0.601148 0.443949 0.0437345
1618 1 0.611559 0.455433 0.0540748
6567 1 0.732077 0.414765 0.0645318
6570 1 0.76154 0.415156 0.0451625
6572 1 0.758124 0.414816 0.0160719
6571 1 0.763492 0.425024 0.029916
6568 1 0.742183 0.430121 0.0640573
6569 1 0.759807 0.426072 0.0602603
753 1 0.986907 0.463734 0.0385344
754 1 0.991017 0.464161 0.0562086
3485 1 0.0770009 0.524018 0.0483611
3486 1 0.0899122 0.511805 0.0451624
3487 1 0.0961384 0.511562 0.0278664
3488 1 0.108858 0.524167 0.0257965
3489 1 0.114608 0.524613 0.00838784
3328 1 0.159212 0.494088 0.0192448
3329 1 0.14447 0.493713 0.00816665
3330 1 0.138328 0.476713 0.0055772
3327 1 0.173403 0.490335 0.00862084
8022 1 0.179548 0.491022 0.0657131
8021 1 0.162608 0.485769 0.0659003
8001 1 0.208439 0.532805 0.0189615
1631 1 0.511607 0.506968 0.0195718
1633 1 0.528758 0.518739 0.0406147
1632 1 0.528007 0.515052 0.0227744
1628 1 0.514472 0.475071 0.000881847
1630 1 0.508198 0.503732 0.00200274
1634 1 0.529416 0.504008 0.050659
1635 1 0.54595 0.497438 0.0489775
1636 1 0.558494 0.507758 0.058198
1617 1 0.616764 0.46871 0.0421458
1616 1 0.628266 0.480337 0.0505779
1615 1 0.628443 0.492723 0.0371401
1612 1 0.622739 0.524978 0.0212579
1613 1 0.639186 0.518466 0.0263068
1614 1 0.638336 0.507323 0.0410832
750 1 0.965837 0.475733 0.00607787
751 1 0.980729 0.483106 0.014383
752 1 0.981774 0.480314 0.0326549
755 1 0.975285 0.46908 0.0639026
3482 1 0.0602688 0.549717 0.0359114
3505 1 0.010344 0.588121 0.0374067
3507 1 0.00271106 0.577222 0.0640403
3481 1 0.0468693 0.562021 0.0345281
3478 1 0.012113 0.549857 0.0088879
3479 1 0.0243404 0.547558 0.0217729
3480 1 0.0382071 0.559487 0.0181915
3504 1 0.00330801 0.595029 0.0218788
3499 1 0.064367 0.596195 0.000538997
3502 1 0.0276835 0.597887 0.00397934
3483 1 0.0686913 0.551557 0.0521908
3484 1 0.0831891 0.540672 0.0501712
3490 1 0.121119 0.540909 0.00508761
8004 1 0.195089 0.552086 0.0415618
8005 1 0.182425 0.565382 0.0442939
8006 1 0.188993 0.579228 0.0547638
8007 1 0.174518 0.589537 0.0600468
8003 1 0.209959 0.558008 0.033471
8002 1 0.220164 0.543833 0.0279417
1603 1 0.533489 0.569333 0.0449273
1605 1 0.557408 0.573024 0.028023
1606 1 0.563944 0.568106 0.0118344
1604 1 0.539998 0.567802 0.0278235
1602 1 0.545214 0.560636 0.0553071
1608 1 0.594964 0.570948 0.0147385
1607 1 0.579933 0.575302 0.00499034
1611 1 0.626278 0.538636 0.00967622
1594 1 0.600345 0.579385 0.0586236
1593 1 0.600145 0.596389 0.0531337
1610 1 0.618383 0.553448 0.0162401
1589 1 0.648625 0.584551 0.0402147
1588 1 0.66628 0.581443 0.0345613
1609 1 0.601479 0.554817 0.010075
1592 1 0.616034 0.599579 0.0439866
1586 1 0.666713 0.551961 0.0428708
1587 1 0.668095 0.564322 0.0293151
1585 1 0.681877 0.554164 0.0530739
8657 1 0.827115 0.574582 0.0351047
8658 1 0.838475 0.580913 0.0219252
8659 1 0.85496 0.586137 0.0280289
8656 1 0.821472 0.58832 0.0456423
8661 1 0.861993 0.597371 0.000574667
8655 1 0.804688 0.59134 0.0415138
8660 1 0.866846 0.585717 0.0137307
3477 1 0.995977 0.543686 0.0142385
3506 1 0.996454 0.583764 0.0482532
3503 1 0.0159378 0.606059 0.0151367
3622 1 0.0421918 0.630463 0.0550982
3623 1 0.0257885 0.629815 0.0642772
3624 1 0.0136666 0.638627 0.0544851
3621 1 0.0540939 0.619884 0.0643893
3498 1 0.0798286 0.605728 0.00210168
3612 1 0.128548 0.63106 0.0155249
3616 1 0.121644 0.619246 0.0538617
3615 1 0.128838 0.606357 0.0431059
3620 1 0.0710463 0.625016 0.0617331
3617 1 0.104636 0.613116 0.0583784
3613 1 0.139272 0.616126 0.0176924
3614 1 0.143422 0.613117 0.0349466
3597 1 0.156861 0.665178 0.0556835
3599 1 0.159041 0.665537 0.0273162
1590 1 0.644913 0.602006 0.0453165
1591 1 0.630115 0.602865 0.0555354
1561 1 0.612183 0.655449 0.017668
1562 1 0.629431 0.652427 0.0116616
1564 1 0.645345 0.659535 0.0361424
1563 1 0.642966 0.663274 0.0186199
1569 1 0.697909 0.657749 0.0501688
1570 1 0.700653 0.648865 0.065732
8652 1 0.798926 0.632463 0.0427254
8654 1 0.797782 0.603904 0.0528796
8650 1 0.821145 0.653678 0.0414612
8653 1 0.807324 0.61906 0.0527761
8651 1 0.804378 0.649347 0.0477048
8631 1 0.92493 0.627865 0.0191986
8630 1 0.907526 0.624121 0.0249446
8632 1 0.924527 0.639562 0.00544184
8629 1 0.909709 0.6114 0.0381057
8628 1 0.893665 0.607321 0.0456538
8627 1 0.886666 0.620807 0.0558145
8626 1 0.870927 0.614269 0.0628047
3625 1 0.996576 0.634146 0.0590513
3626 1 0.985004 0.647859 0.0568529
3628 1 0.973116 0.636693 0.0311017
3629 1 0.970614 0.640564 0.0128843
3630 1 0.98583 0.639434 0.002903
3627 1 0.982903 0.649734 0.0391427
3636 1 0.0104745 0.69086 0.00406177
3637 1 0.00389685 0.707548 0.00366077
3553 1 0.0313684 0.725772 0.0620063
3566 1 0.0810696 0.679964 0.0588061
3565 1 0.0936337 0.675201 0.04626
3564 1 0.108077 0.685908 0.0495322
3562 1 0.119317 0.693976 0.0234843
3563 1 0.12167 0.683645 0.0381537
3558 1 0.0842373 0.732605 0.0257481
3560 1 0.109309 0.721179 0.0152719
3561 1 0.111799 0.710054 0.0292258
3598 1 0.168506 0.66974 0.0422916
3600 1 0.168718 0.67177 0.0135462
9837 1 0.333264 0.7235 0.000188122
9836 1 0.349954 0.730692 0.00536069
1557 1 0.565081 0.693343 0.0150905
1558 1 0.58323 0.692225 0.0152803
1559 1 0.588381 0.674208 0.0146931
1556 1 0.561065 0.709881 0.0226303
1555 1 0.56379 0.710826 0.0409066
1552 1 0.589071 0.718034 0.0567744
1553 1 0.581933 0.731356 0.0459149
1554 1 0.563864 0.728521 0.0458295
1551 1 0.606462 0.721472 0.057901
1560 1 0.606389 0.671811 0.0141933
1550 1 0.614117 0.705366 0.0579445
1565 1 0.657443 0.671307 0.0438697
1566 1 0.671235 0.675002 0.0326625
8684 1 0.728612 0.707267 0.0358866
8685 1 0.721258 0.723867 0.0360134
8683 1 0.729082 0.701077 0.0182407
1568 1 0.691 0.673852 0.0544839
1567 1 0.684925 0.683858 0.0403276
8682 1 0.733681 0.68322 0.0175653
8678 1 0.780259 0.699484 0.00145044
8681 1 0.751767 0.680908 0.0145535
8677 1 0.78521 0.717129 0.00159475
8647 1 0.854549 0.668217 0.0474117
8649 1 0.825231 0.671236 0.0453918
8674 1 0.824356 0.702313 0.00195277
8648 1 0.84156 0.675579 0.0376068
8676 1 0.802433 0.720412 0.00678302
8700 1 0.831977 0.728146 0.0561705
8646 1 0.871334 0.668227 0.0409273
8644 1 0.893708 0.68826 0.0332367
8643 1 0.899714 0.677072 0.0199801
8645 1 0.875648 0.685707 0.03566
8642 1 0.894381 0.682208 0.00316201
3638 1 0.999166 0.711994 0.0207927
3639 1 0.986546 0.70127 0.0267299
3640 1 0.972618 0.711179 0.033606
3641 1 0.961139 0.717596 0.0209858
3642 1 0.946701 0.726215 0.0277027
3554 1 0.0348419 0.74332 0.0584483
3555 1 0.0524339 0.748003 0.0547295
3556 1 0.0595977 0.738294 0.0410823
3793 1 0.0610114 0.778521 0.000352324
3557 1 0.0767136 0.744623 0.0376264
3559 1 0.101728 0.736841 0.0212085
1 1 0.0849617 0.797485 0.0411394
2 1 0.0987616 0.790744 0.0514363
3 1 0.0911268 0.783208 0.0661304
3780 1 0.174518 0.782677 0.000250458
3775 1 0.167139 0.797044 0.0579884
3776 1 0.15817 0.792319 0.0423413
3777 1 0.164639 0.776509 0.0364898
3778 1 0.154924 0.772615 0.0212325
3779 1 0.15858 0.785572 0.00820458
9828 1 0.331308 0.770592 0.0363017
9826 1 0.311564 0.779945 0.0134148
9827 1 0.324273 0.784486 0.026418
9829 1 0.348145 0.77574 0.0417861
9831 1 0.375439 0.778036 0.0303379
9832 1 0.376631 0.761288 0.0229664
9830 1 0.357788 0.783271 0.0282576
9833 1 0.372782 0.762433 0.00482026
1166 1 0.420104 0.794538 0.0654765
1255 1 0.488396 0.775955 0.0625085
1253 1 0.506679 0.799041 0.066031
1523 1 0.643582 0.773798 0.0613677
1522 1 0.659512 0.765345 0.0582097
1521 1 0.666004 0.767915 0.041405
8686 1 0.732965 0.736767 0.0298192
1519 1 0.683156 0.786273 0.0265894
1520 1 0.669467 0.785574 0.0391807
1518 1 0.698071 0.788983 0.0368582
8687 1 0.748127 0.736182 0.0401048
8688 1 0.761661 0.744666 0.0316764
8689 1 0.760625 0.762232 0.0315949
8690 1 0.766031 0.768433 0.0478497
8691 1 0.782845 0.763262 0.0509549
8693 1 0.79461 0.789721 0.0627134
8692 1 0.789048 0.772431 0.0659448
8696 1 0.828617 0.78506 0.0501245
8697 1 0.839856 0.771049 0.0456992
8699 1 0.841631 0.742096 0.0496753
8698 1 0.829936 0.755881 0.0464765
3652 1 0.864479 0.7597 0.0043017
3648 1 0.915032 0.770979 0.00203377
3649 1 0.908945 0.756464 0.0107957
3650 1 0.892865 0.751487 0.0036719
3651 1 0.881592 0.765971 0.00335199
8552 1 0.903357 0.767183 0.0659714
3647 1 0.933412 0.771722 0.00329109
3644 1 0.957996 0.75231 0.0226046
3643 1 0.951247 0.74229 0.0356329
3645 1 0.954614 0.769605 0.0255742
3646 1 0.936718 0.77214 0.0210398
3734 1 0.0269706 0.832792 0.0509345
3735 1 0.0442632 0.826835 0.0524298
3733 1 0.0189262 0.827616 0.0352211
3732 1 0.00200696 0.835786 0.0347249
3768 1 0.113331 0.846116 0.0554134
3769 1 0.125363 0.858992 0.0512305
3770 1 0.137622 0.854819 0.0380344
3771 1 0.147834 0.83968 0.0383162
3772 1 0.16216 0.841526 0.0497911
3773 1 0.170897 0.826157 0.0527291
3774 1 0.161489 0.81357 0.061881
1078 1 0.257717 0.846571 0.0597603
1079 1 0.258839 0.864701 0.0568423
1164 1 0.426688 0.814056 0.0455464
1163 1 0.434444 0.830373 0.044728
1162 1 0.425449 0.839337 0.0573843
1165 1 0.431253 0.808228 0.0620496
1161 1 0.43674 0.851353 0.0657701
8885 1 0.582837 0.864063 0.0601586
1517 1 0.696915 0.805831 0.0446155
1516 1 0.708744 0.806225 0.0586059
3697 1 0.732405 0.849046 0.0166477
3698 1 0.726967 0.832793 0.0227948
3696 1 0.72781 0.862874 0.028432
1515 1 0.70727 0.822679 0.0664846
3699 1 0.735584 0.819052 0.0137272
3700 1 0.752523 0.818931 0.0192719
3701 1 0.764505 0.807294 0.0107109
3702 1 0.779318 0.808766 0.0221713
3706 1 0.793883 0.84923 0.00898561
3703 1 0.795471 0.805804 0.0139088
3704 1 0.799179 0.820141 0.00363654
2959 1 0.786907 0.8529 0.0609078
3705 1 0.802929 0.834395 0.0141907
3714 1 0.854991 0.847884 0.0089644
3715 1 0.858637 0.83086 0.0136711
3716 1 0.858339 0.830402 0.0318563
3717 1 0.866286 0.814389 0.0366082
3719 1 0.859318 0.820571 0.0649821
2958 1 0.805133 0.85055 0.0630266
3718 1 0.872594 0.815129 0.0537607
3667 1 0.909677 0.8264 0.0127317
3668 1 0.925356 0.829411 0.0206082
3669 1 0.92966 0.84743 0.0185596
3730 1 0.987997 0.843907 0.0584786
3731 1 0.993035 0.829126 0.0492188
3670 1 0.944468 0.85011 0.0285774
3987 1 0.0260708 0.90471 0.0208577
3988 1 0.0438517 0.906845 0.0166801
3989 1 0.0535386 0.91451 0.0304266
3991 1 0.0507899 0.932933 0.0530971
3986 1 0.0155705 0.909829 0.00628266
3990 1 0.0429939 0.928539 0.0373865
5123 1 0.181099 0.877656 0.00568616
5119 1 0.22667 0.902347 0.0119659
1048 1 0.233993 0.920253 0.0553311
5120 1 0.214698 0.889365 0.00722971
1047 1 0.239567 0.930302 0.0413232
1081 1 0.285981 0.872122 0.0661627
1080 1 0.27563 0.868225 0.0516288
1082 1 0.301906 0.87863 0.0623574
5113 1 0.281877 0.886722 0.00477691
5115 1 0.276931 0.91639 2.06534e-05
1145 1 0.365511 0.89668 0.0454636
1146 1 0.378204 0.904282 0.0356483
1147 1 0.380345 0.893697 0.0206369
1148 1 0.393168 0.901473 0.00996129
1144 1 0.371092 0.880755 0.05209
1143 1 0.358005 0.877087 0.064348
1150 1 0.416107 0.882864 0.0184613
1151 1 0.43145 0.882855 0.0291007
1152 1 0.443353 0.893785 0.0209507
1149 1 0.410235 0.900266 0.0173711
1153 1 0.457357 0.897431 0.0324596
1154 1 0.449778 0.902106 0.0481992
1155 1 0.461896 0.905495 0.0618204
9526 1 0.515947 0.904472 0.0545143
9527 1 0.506058 0.920067 0.0530803
9525 1 0.533579 0.90767 0.0521145
9506 1 0.5933 0.929825 0.0387838
8886 1 0.577129 0.880351 0.0664933
9505 1 0.61207 0.92997 0.0397141
3695 1 0.729684 0.879999 0.0205235
2909 1 0.699753 0.932743 0.0619164
3694 1 0.746322 0.887033 0.020862
3692 1 0.767623 0.902453 0.00762117
3693 1 0.749773 0.89842 0.00682965
3684 1 0.837573 0.903244 0.0197682
3685 1 0.850102 0.910881 0.0085798
3682 1 0.853015 0.885718 0.0383607
3683 1 0.843038 0.901286 0.0373794
3681 1 0.863169 0.885045 0.0533003
3676 1 0.928636 0.900396 0.0547719
3677 1 0.912622 0.892727 0.0568033
3678 1 0.906869 0.890782 0.0400908
3679 1 0.89008 0.883008 0.0403368
3680 1 0.878524 0.893993 0.0497112
3671 1 0.948056 0.867937 0.0300844
3672 1 0.961607 0.872337 0.041598
3673 1 0.960946 0.890526 0.0428063
3674 1 0.957709 0.895811 0.0603902
3985 1 0.998835 0.910497 0.0127472
3983 1 0.975139 0.929164 0.0136483
3984 1 0.990133 0.923901 0.00404128
3675 1 0.940462 0.891274 0.0648204
3997 1 0.00530663 0.965533 0.0283659
3998 1 0.0220186 0.968806 0.0220657
3999 1 0.0214362 0.965519 0.00431636
3996 1 0.0059724 0.965494 0.0466694
3992 1 0.0388223 0.944197 0.0604366
3995 1 0.000355949 0.9488 0.053094
3993 1 0.0232687 0.93493 0.0624949
5167 1 0.0946413 0.998547 0.034291
5166 1 0.0934065 0.980269 0.0309802
5164 1 0.115025 0.977165 0.0514079
5165 1 0.109909 0.973258 0.0341792
5163 1 0.132918 0.974219 0.0525931
5162 1 0.140963 0.989304 0.045254
1039 1 0.188343 0.982674 0.0610344
1040 1 0.196859 0.977618 0.0453112
1042 1 0.223909 0.978428 0.0333055
1041 1 0.21441 0.982564 0.0481222
1043 1 0.240633 0.974452 0.0376885
1044 1 0.247136 0.963106 0.0247504
1045 1 0.259443 0.952366 0.0322644
1046 1 0.252005 0.9432 0.046465