ITEM: TIMESTEP
0
ITEM: NUMBER OF ATOMS
10000
ITEM: BOX BOUNDS pp pp pp
-1.3042857441080429e+00 8.1362885744108240e+01
-1.3042857441080429e+00 8.1362885744108240e+01
-1.3042857441080429e+00 8.1362885744108240e+01
ITEM: ATOMS id type xs ys zs
5404 1 0.032485 0.0556181 0.0163546
5405 1 0.0166816 0.0553349 0.025714
5406 1 0.0145543 0.0373263 0.0307216
5407 1 0.0280492 0.0327758 0.0431943
5408 1 0.024442 0.0154744 0.0489896
5409 1 0.0159845 0.0142085 0.0653292
5168 1 0.0703471 0.00923115 0.0380484
5171 1 0.0732515 0.0402178 0.017377
5172 1 0.0815778 0.0557749 0.0231226
5156 1 0.130992 0.0463987 0.0335896
5169 1 0.0747687 0.00991532 0.0200699
5170 1 0.0845132 0.0253505 0.0166262
5173 1 0.0848448 0.0551129 0.0414536
5159 1 0.133643 0.0133371 0.0376143
5155 1 0.133607 0.0612001 0.0237249
5158 1 0.145732 0.0245968 0.0461106
5157 1 0.147615 0.0399426 0.0375888
1032 1 0.198275 0.048704 0.0380799
1033 1 0.197258 0.0606024 0.0517602
1034 1 0.184432 0.0544915 0.0636209
1038 1 0.183464 0.00428296 0.0650726
1031 1 0.212846 0.0542198 0.02818
1027 1 0.243854 0.0175579 0.0535516
1028 1 0.237231 0.0318002 0.0432903
1029 1 0.223507 0.0258017 0.031613
1030 1 0.218733 0.0394253 0.0193361
9184 1 0.265391 0.0473656 0.00581622
9185 1 0.277301 0.0618253 0.00657248
9186 1 0.289646 0.0585937 0.0202239
9189 1 0.297619 0.0312386 0.0447132
9187 1 0.279465 0.0536723 0.0346244
9188 1 0.290164 0.0473685 0.048661
9190 1 0.310866 0.0276092 0.0569248
9191 1 0.324876 0.0198032 0.0479965
9192 1 0.332852 0.0319558 0.0363606
9193 1 0.338655 0.0467107 0.0456568
9194 1 0.343326 0.0607593 0.034304
9560 1 0.39492 0.00747292 0.0282215
9561 1 0.413225 0.00640345 0.0263402
9562 1 0.419628 0.0230473 0.0219423
9563 1 0.419968 0.0269558 0.00379438
4958 1 0.465704 0.0285627 0.051258
4960 1 0.469667 0.00217452 0.0369563
4957 1 0.473477 0.0437251 0.0597999
4959 1 0.477756 0.0142453 0.0489261
4951 1 0.528446 0.0358421 0.0106736
4952 1 0.510697 0.0331564 0.0110342
4956 1 0.485488 0.0527797 0.048939
4954 1 0.483752 0.0475345 0.0188609
4953 1 0.502374 0.04825 0.0181011
4955 1 0.477269 0.0576538 0.0329137
4950 1 0.534246 0.0417634 0.027141
4949 1 0.552821 0.0439504 0.0268183
4948 1 0.557733 0.0530725 0.0422142
9515 1 0.580289 0.00077103 0.0591013
9497 1 0.650867 0.00230111 0.0141832
4939 1 0.614037 0.0426071 0.0123397
9496 1 0.652982 0.0199215 0.00938189
4940 1 0.609077 0.0588965 0.019832
9495 1 0.670487 0.0252809 0.0125081
9494 1 0.673177 0.0425615 0.00697908
9492 1 0.701352 0.0341762 0.00309458
9493 1 0.690313 0.0463161 0.012218
9491 1 0.719314 0.0380131 0.00701169
2884 1 0.737312 0.0457111 0.0661485
2886 1 0.760142 0.0296132 0.0561361
2889 1 0.786478 0.00153377 0.0305342
2885 1 0.742115 0.0286836 0.059656
2887 1 0.766842 0.0132449 0.0505791
2888 1 0.782541 0.0159375 0.0414545
6953 1 0.863846 0.0533435 0.0578101
2890 1 0.803237 0.00421608 0.0225723
6950 1 0.823556 0.0458799 0.043905
6951 1 0.84155 0.0438977 0.0416433
6949 1 0.820537 0.0481209 0.0622628
6948 1 0.802915 0.0537126 0.0657224
6952 1 0.850472 0.0592442 0.0472369
5435 1 0.911262 0.019918 0.0465149
5436 1 0.913765 0.0264822 0.0291321
5437 1 0.903886 0.0140685 0.0191979
5438 1 0.886786 0.0130239 0.0263552
5439 1 0.876354 0.00312648 0.0147921
5434 1 0.920746 0.0305658 0.0575836
5455 1 0.972311 0.00723012 0.000637018
5456 1 0.974689 0.00627916 0.0189894
5457 1 0.959884 0.0128433 0.0270724
5458 1 0.96284 0.0279037 0.0371326
5459 1 0.964672 0.0431227 0.0267827
5460 1 0.968371 0.0570297 0.0380246
5403 1 0.0345293 0.072651 0.0103831
5398 1 0.0255074 0.113121 0.0590936
5400 1 0.0405226 0.112993 0.0326105
5399 1 0.0253881 0.107774 0.041424
5401 1 0.0392471 0.101946 0.0178743
5402 1 0.0358694 0.0845985 0.0244429
5174 1 0.0898794 0.0720067 0.0473156
5179 1 0.123707 0.116182 0.0647129
5175 1 0.0982522 0.0709613 0.0642197
5153 1 0.144032 0.0898135 0.0248341
5154 1 0.144129 0.0731161 0.0327827
5150 1 0.183018 0.0798794 0.00394145
5152 1 0.161949 0.0937959 0.0221986
5151 1 0.166491 0.0886758 0.00427677
4060 1 0.187327 0.126579 0.0572051
4061 1 0.190088 0.1096 0.0641261
1020 1 0.242184 0.0816901 0.0551419
1018 1 0.228876 0.0999708 0.0324774
1019 1 0.235753 0.0985678 0.0500695
1016 1 0.251997 0.111938 0.0160968
1017 1 0.241992 0.096979 0.0207303
1015 1 0.24494 0.123113 0.00326916
9199 1 0.33174 0.12535 0.0615645
9169 1 0.380254 0.07089 0.00759478
9197 1 0.336731 0.10636 0.0382198
9195 1 0.342245 0.0766098 0.0443037
9196 1 0.346443 0.0910038 0.0331863
9198 1 0.344096 0.113767 0.0538154
9168 1 0.394218 0.0743831 0.0189839
9166 1 0.418965 0.0922494 0.0235766
9167 1 0.403099 0.0902095 0.0137069
9165 1 0.430571 0.0789226 0.0182706
9164 1 0.437762 0.0833206 0.00102026
4728 1 0.501787 0.113086 0.0560273
4729 1 0.505307 0.105587 0.0395354
4727 1 0.516638 0.122607 0.0615263
4730 1 0.505902 0.119048 0.0263289
4731 1 0.489085 0.120713 0.0190453
4945 1 0.572674 0.0954858 0.0380849
4946 1 0.567753 0.0792034 0.0311452
4947 1 0.553822 0.0713336 0.0408486
4944 1 0.589067 0.100494 0.0306163
4943 1 0.601644 0.0867922 0.0341627
4941 1 0.62252 0.0720904 0.0193983
4942 1 0.614877 0.088455 0.0217313
2735 1 0.608322 0.129729 0.065086
6758 1 0.679081 0.130096 0.0208464
6759 1 0.694627 0.120119 0.0241939
6761 1 0.713738 0.100816 0.00912714
6760 1 0.700118 0.113591 0.00710633
6762 1 0.727345 0.110352 0.0160631
6763 1 0.742919 0.100658 0.0133115
6764 1 0.742299 0.0855847 0.0244414
6766 1 0.771325 0.0796733 0.0181881
6767 1 0.788096 0.0791462 0.0259723
6765 1 0.758484 0.0822252 0.031975
6768 1 0.788886 0.093203 0.0381314
6769 1 0.805309 0.0950185 0.0444719
6770 1 0.803949 0.104249 0.0605236
6772 1 0.830986 0.116491 0.055477
6773 1 0.845812 0.123695 0.0636951
6880 1 0.910317 0.0673464 0.00416834
6879 1 0.903039 0.0758026 0.0188162
6863 1 0.888128 0.121099 0.00800484
6864 1 0.901954 0.131832 0.00213873
6877 1 0.908597 0.0877923 0.0445207
6878 1 0.914552 0.0745333 0.0331136
6876 1 0.919365 0.0880394 0.0594174
6874 1 0.921449 0.1172 0.0535235
6862 1 0.877246 0.132135 0.0179892
6875 1 0.917844 0.105139 0.0666073
5461 1 0.976655 0.0707039 0.0290557
5463 1 0.972893 0.085374 0.00150924
5464 1 0.987342 0.0962276 0.00535828
5466 1 0.997817 0.123759 0.00236576
5462 1 0.96534 0.0799772 0.017689
5465 1 0.982477 0.113908 0.00561378
6872 1 0.945215 0.128347 0.0369534
6873 1 0.939945 0.116737 0.0508077
5190 1 0.0421568 0.175919 0.0450089
5189 1 0.0487703 0.160942 0.0364085
5191 1 0.0562586 0.184518 0.0534621
5188 1 0.062198 0.166925 0.0250862
5186 1 0.0863629 0.158023 0.00893158
5187 1 0.0708416 0.152569 0.0174671
5183 1 0.120738 0.14908 0.0254632
5184 1 0.105712 0.156595 0.0331952
5185 1 0.0961477 0.167812 0.02097
5182 1 0.127144 0.134724 0.0360234
5181 1 0.136232 0.138146 0.052086
4058 1 0.196335 0.155049 0.0587068
4059 1 0.201822 0.137502 0.0598199
4057 1 0.20977 0.167409 0.0575302
1014 1 0.234967 0.136575 0.0119355
4056 1 0.20215 0.183716 0.0542943
1010 1 0.247765 0.177809 0.0176504
4055 1 0.215797 0.195372 0.0494207
1011 1 0.23208 0.18126 0.00770371
1007 1 0.262065 0.175685 0.0476126
1009 1 0.258286 0.192344 0.0216655
4054 1 0.226593 0.199931 0.063604
1005 1 0.257267 0.150931 0.0637738
1012 1 0.22148 0.165983 0.0088613
1013 1 0.230391 0.151084 0.000911776
1006 1 0.269065 0.159126 0.0522957
4027 1 0.306821 0.164132 0.00958301
1008 1 0.270622 0.183942 0.0329567
4026 1 0.324957 0.161513 0.00932897
1784 1 0.323007 0.182349 0.0514315
1785 1 0.309689 0.173531 0.0612661
4713 1 0.387552 0.168227 0.00240322
4714 1 0.398776 0.169207 0.0162097
4718 1 0.423484 0.150846 0.0605439
4716 1 0.404961 0.14848 0.0366
4717 1 0.421862 0.15289 0.0420479
4715 1 0.402575 0.151612 0.0184783
1766 1 0.447241 0.197706 0.0274106
1767 1 0.43142 0.199128 0.0370847
4732 1 0.489229 0.135011 0.00678287
1748 1 0.560693 0.161844 0.0501901
1750 1 0.569083 0.150609 0.0230347
1746 1 0.544609 0.186105 0.0573994
1747 1 0.54764 0.168125 0.05959
1749 1 0.555487 0.159417 0.0330711
1751 1 0.563187 0.147463 0.00563813
2733 1 0.613425 0.1569 0.0526447
2732 1 0.621028 0.147379 0.03922
2730 1 0.623433 0.148071 0.00874824
2731 1 0.622068 0.158451 0.0244763
6757 1 0.671395 0.134244 0.0369605
6755 1 0.67116 0.153985 0.0587635
6756 1 0.681703 0.147626 0.0449816
2777 1 0.728505 0.199267 0.00445288
2779 1 0.722115 0.185904 0.0316795
2781 1 0.717975 0.198761 0.0584438
2778 1 0.734188 0.187406 0.0178313
6793 1 0.77038 0.188861 0.0518258
6794 1 0.773532 0.182729 0.0347539
6795 1 0.782069 0.195402 0.0241592
6796 1 0.782211 0.188482 0.00731874
6792 1 0.786433 0.188995 0.0616305
6791 1 0.79061 0.171188 0.0645178
6921 1 0.800207 0.139731 0.00956689
6922 1 0.817314 0.146144 0.01199
6923 1 0.817119 0.15853 0.0257976
6924 1 0.832944 0.159676 0.0344729
6925 1 0.835274 0.174785 0.0448779
6926 1 0.844486 0.170461 0.0604396
6859 1 0.863239 0.17529 0.00301376
6861 1 0.874919 0.146743 0.00649262
6860 1 0.868694 0.162134 0.0148721
5467 1 0.994153 0.142595 0.000355877
6869 1 0.948408 0.158235 0.0144487
6870 1 0.935631 0.155605 0.0269021
6871 1 0.941354 0.146238 0.0415562
5192 1 0.0523447 0.202061 0.0586459
5193 1 0.0680075 0.210606 0.0648422
810 1 0.197897 0.266639 0.00755406
4049 1 0.266557 0.240028 0.0570769
811 1 0.214703 0.260923 0.00275049
4052 1 0.236091 0.227906 0.0655085
4046 1 0.271711 0.242597 0.0204355
4047 1 0.28305 0.234644 0.0327901
4048 1 0.272078 0.22635 0.0460877
4044 1 0.295712 0.246327 0.00487621
4045 1 0.281058 0.255109 0.0111125
1779 1 0.328166 0.252603 0.0591966
1778 1 0.328048 0.255481 0.040912
1781 1 0.333137 0.226821 0.0469703
1783 1 0.320601 0.200783 0.0488399
1780 1 0.322825 0.235079 0.059961
1773 1 0.382374 0.258514 0.0142528
1770 1 0.395328 0.227777 0.0302997
1782 1 0.336994 0.208944 0.0479826
1768 1 0.42146 0.213625 0.0311947
1771 1 0.403455 0.243983 0.0321594
1765 1 0.455626 0.214468 0.0241734
1772 1 0.400032 0.253881 0.0170204
1769 1 0.404806 0.214734 0.0398468
1764 1 0.47324 0.212591 0.0181135
1760 1 0.526972 0.212817 0.0144675
1762 1 0.500072 0.225544 0.0117994
1763 1 0.482888 0.22824 0.0186626
1761 1 0.509575 0.212708 0.0210005
9062 1 0.49585 0.223347 0.0660964
9063 1 0.490775 0.240936 0.0627794
1757 1 0.56295 0.211048 0.0180042
1756 1 0.575972 0.204434 0.00562048
1758 1 0.553223 0.224973 0.0103175
1759 1 0.537183 0.227209 0.0193758
1744 1 0.557097 0.212592 0.0625771
2725 1 0.629803 0.201306 0.0137119
2724 1 0.61709 0.213285 0.0205361
2723 1 0.620296 0.217504 0.0382266
2722 1 0.613721 0.203927 0.0487753
2721 1 0.612269 0.21085 0.0661219
2780 1 0.719139 0.202005 0.0400724
2769 1 0.699706 0.247942 0.00492532
2768 1 0.703582 0.25823 0.0196493
2767 1 0.72041 0.265927 0.0188485
2782 1 0.715737 0.215367 0.0662779
2766 1 0.734329 0.253602 0.0191814
2765 1 0.737213 0.246626 0.0356082
499 1 0.785671 0.25974 0.0112387
2762 1 0.766185 0.247105 0.0590518
2763 1 0.757964 0.231664 0.0520799
2764 1 0.751109 0.234103 0.034961
498 1 0.796193 0.254314 0.0251096
497 1 0.803808 0.238735 0.0216776
493 1 0.849435 0.235403 0.0214001
494 1 0.838284 0.221129 0.0175353
495 1 0.826437 0.220446 0.0316259
496 1 0.816627 0.235683 0.0347424
492 1 0.860478 0.237544 0.00677452
491 1 0.874781 0.226352 0.00946769
860 1 0.0485824 0.310351 0.0473378
859 1 0.0513183 0.317199 0.0302223
861 1 0.0545055 0.323055 0.0594258
858 1 0.0673866 0.32496 0.0286119
823 1 0.13266 0.331404 0.0122646
812 1 0.226519 0.269315 0.0140461
813 1 0.224797 0.287827 0.0148472
814 1 0.236003 0.297123 0.00373946
1776 1 0.346485 0.268137 0.020905
1774 1 0.3764 0.27096 0.0265077
1777 1 0.341049 0.26855 0.0386979
1775 1 0.361137 0.279945 0.0212796
9046 1 0.386083 0.313765 0.065413
9047 1 0.391368 0.29613 0.0645849
9048 1 0.407421 0.292887 0.0549905
9049 1 0.422083 0.29737 0.0650135
9068 1 0.532469 0.272914 0.0413662
9067 1 0.526619 0.273401 0.0586474
9071 1 0.511952 0.280614 0.0060063
9069 1 0.527342 0.288036 0.0312929
9070 1 0.528883 0.285221 0.0126731
9066 1 0.508087 0.273722 0.055917
9074 1 0.472115 0.300161 0.0194923
9072 1 0.500376 0.293028 0.0138715
9073 1 0.483247 0.291278 0.00768102
9075 1 0.475887 0.318068 0.0190978
9076 1 0.469794 0.325725 0.00369318
6525 1 0.581514 0.290314 0.0424804
6524 1 0.583664 0.283419 0.0256342
6526 1 0.586213 0.277399 0.0550741
6521 1 0.62206 0.273822 4.29016e-06
6522 1 0.604079 0.276447 0.00361184
6523 1 0.601743 0.283259 0.0207375
6683 1 0.658415 0.319999 0.0265497
6684 1 0.643701 0.313347 0.0357887
6685 1 0.636299 0.327346 0.0459974
6686 1 0.625272 0.319924 0.0593101
6687 1 0.61349 0.332529 0.0659328
6583 1 0.705021 0.320516 0.00300767
6585 1 0.704287 0.31017 0.0305348
6584 1 0.715448 0.317803 0.0177324
6586 1 0.714262 0.306436 0.0454042
6587 1 0.703499 0.298109 0.0572844
500 1 0.775406 0.274328 0.01589
501 1 0.776174 0.288254 0.00330391
6594 1 0.778647 0.31835 0.0563449
520 1 0.820177 0.291352 0.0589062
521 1 0.83282 0.278639 0.0628217
517 1 0.82879 0.303802 0.0152528
519 1 0.825282 0.301962 0.0446534
518 1 0.821602 0.293185 0.0285532
523 1 0.863203 0.273224 0.0660326
522 1 0.850068 0.285637 0.0630652
528 1 0.879006 0.320912 0.0187153
527 1 0.871841 0.305442 0.0261444
524 1 0.878307 0.27961 0.0568618
529 1 0.888259 0.317427 0.00320581
525 1 0.876337 0.277609 0.0383221
526 1 0.884281 0.291597 0.0292327
901 1 0.925179 0.321619 0.0344012
899 1 0.936653 0.293731 0.037365
900 1 0.937236 0.310967 0.0434627
896 1 0.983942 0.291259 0.0413732
897 1 0.966569 0.295656 0.0353747
898 1 0.952541 0.286612 0.0436593
895 1 0.983197 0.29344 0.0592547
856 1 0.0529994 0.347156 0.0121762
863 1 0.0303313 0.343092 0.0575778
853 1 0.0458539 0.39097 0.02705
854 1 0.0424972 0.373125 0.0225849
855 1 0.0577095 0.364592 0.0172725
865 1 0.00798753 0.362123 0.0560632
857 1 0.0673216 0.335764 0.0135379
825 1 0.124993 0.355426 0.0295009
826 1 0.111691 0.359678 0.0419965
827 1 0.106391 0.377437 0.0407099
828 1 0.102526 0.381932 0.0230007
829 1 0.0997049 0.399992 0.0211781
824 1 0.124941 0.336841 0.028133
790 1 0.169017 0.396093 0.00822635
822 1 0.150256 0.337014 0.0106838
1725 1 0.511658 0.343249 0.0349067
1724 1 0.504963 0.340185 0.0516501
1723 1 0.490646 0.351095 0.0542023
1726 1 0.527864 0.335197 0.0338914
6494 1 0.524618 0.391945 0.00101536
9077 1 0.468209 0.343591 0.00607224
1727 1 0.539158 0.341613 0.0475436
1728 1 0.555963 0.333691 0.0478629
1729 1 0.564541 0.342608 0.0619036
6682 1 0.651837 0.333759 0.0162044
6674 1 0.622836 0.398724 0.0398557
6676 1 0.633336 0.388626 0.0137045
6681 1 0.661359 0.336005 0.000845628
6605 1 0.674532 0.37045 0.0534624
6604 1 0.685063 0.361821 0.0402008
6601 1 0.718429 0.372087 0.0391695
6603 1 0.691678 0.374052 0.0284185
6602 1 0.70427 0.383186 0.0376175
6600 1 0.731088 0.378156 0.0510004
6595 1 0.783946 0.336113 0.054289
6597 1 0.772487 0.363638 0.0614656
6596 1 0.769702 0.345609 0.0614353
6577 1 0.754538 0.382329 0.000638717
6576 1 0.740506 0.393098 0.00597547
6598 1 0.756274 0.372493 0.0645582
6599 1 0.745993 0.367802 0.050024
903 1 0.92516 0.341554 0.0585838
902 1 0.92803 0.339113 0.0399616
904 1 0.926378 0.359014 0.0643189
866 1 0.99769 0.34901 0.048253
867 1 0.979496 0.352359 0.0480282
868 1 0.973162 0.354141 0.0653233
852 1 0.0477327 0.401573 0.0120486
851 1 0.0478895 0.419143 0.0172219
850 1 0.0445905 0.429303 0.00186244
830 1 0.100142 0.403992 0.00343027
782 1 0.100864 0.423503 0.0620453
783 1 0.114931 0.425126 0.0507826
784 1 0.119712 0.442977 0.0483289
785 1 0.134362 0.442644 0.0370716
788 1 0.15984 0.417975 0.0267855
789 1 0.1743 0.411816 0.0167924
786 1 0.148477 0.436036 0.0472628
787 1 0.163196 0.432701 0.0369819
1718 1 0.509331 0.401779 0.0604309
1717 1 0.512688 0.419709 0.0646389
1622 1 0.582559 0.423896 0.0255046
1623 1 0.570088 0.417018 0.0136915
1624 1 0.556512 0.42903 0.0107573
1619 1 0.586725 0.45712 0.038626
1621 1 0.573311 0.429269 0.0408226
1620 1 0.582503 0.442619 0.0496794
1625 1 0.561533 0.444097 0.000603644
1626 1 0.547445 0.45573 0.00237019
6675 1 0.634087 0.402602 0.0259271
6672 1 0.612837 0.408515 0.0652046
6673 1 0.623488 0.413108 0.0512613
6575 1 0.747818 0.406607 0.0161254
6574 1 0.757172 0.418813 0.00602775
6573 1 0.763219 0.432014 0.0176404
6572 1 0.748191 0.439081 0.0254267
6571 1 0.754011 0.448964 0.040142
6570 1 0.76363 0.436402 0.0505698
3480 1 0.0127127 0.524377 0.0209704
3483 1 0.0412388 0.516522 0.0441944
3484 1 0.0581401 0.515576 0.0524417
3482 1 0.0410561 0.531132 0.0330974
3485 1 0.0731361 0.514264 0.0426727
3486 1 0.087638 0.515502 0.0547338
3487 1 0.103706 0.511178 0.0468156
3488 1 0.109507 0.52494 0.0361047
3489 1 0.128104 0.525601 0.0361187
3491 1 0.123293 0.531916 0.00786347
3328 1 0.148331 0.491311 0.00945025
3327 1 0.166728 0.487907 0.00839787
3325 1 0.194417 0.497669 0.00058574
1631 1 0.52093 0.508956 0.0114353
1633 1 0.530315 0.50785 0.0405305
1634 1 0.528613 0.489372 0.0415192
1632 1 0.535374 0.5117 0.0233181
1635 1 0.544891 0.480991 0.0428994
1636 1 0.553387 0.484943 0.0588394
1618 1 0.600537 0.467988 0.0456439
1616 1 0.616671 0.492743 0.0451493
1617 1 0.603919 0.483093 0.0359995
1615 1 0.623957 0.505948 0.0343454
1613 1 0.647134 0.524861 0.0296195
1614 1 0.640546 0.511517 0.0407746
3479 1 0.995563 0.528976 0.0250714
751 1 0.963168 0.490081 0.0237106
752 1 0.961033 0.499781 0.0396321
753 1 0.946433 0.492447 0.0489996
754 1 0.942498 0.501773 0.0651122
750 1 0.948148 0.493459 0.012356
749 1 0.943589 0.477798 0.00401997
3481 1 0.0236514 0.537033 0.0291894
3505 1 0.0168827 0.595486 0.0278534
3507 1 0.021935 0.586885 0.0552588
3498 1 0.0637784 0.575378 0.00816006
3506 1 0.00853645 0.592691 0.0439239
3490 1 0.131038 0.538634 0.0235471
3497 1 0.0780815 0.58447 0.000712917
8004 1 0.188124 0.567225 0.0280788
8005 1 0.184707 0.584466 0.0346105
8006 1 0.17995 0.584827 0.0527927
8007 1 0.164901 0.595004 0.0554417
8001 1 0.224867 0.539085 0.0273251
8002 1 0.210165 0.547923 0.0203773
8003 1 0.205195 0.562269 0.0319106
1603 1 0.551111 0.56462 0.0438983
1605 1 0.56128 0.571238 0.0165073
1604 1 0.546267 0.568553 0.0265364
1606 1 0.569914 0.55506 0.0135709
1602 1 0.541266 0.549653 0.0496996
1608 1 0.598587 0.56544 0.00809737
1607 1 0.584008 0.555907 0.00168323
1612 1 0.636301 0.539253 0.0303144
1611 1 0.64011 0.551558 0.0176556
1594 1 0.604957 0.586635 0.0620674
1592 1 0.629899 0.597091 0.0469431
1589 1 0.662781 0.588102 0.0438047
1595 1 0.616072 0.572347 0.0663988
1610 1 0.625861 0.563059 0.0172399
1609 1 0.611747 0.55265 0.012266
1586 1 0.681468 0.559473 0.0560193
1587 1 0.683544 0.565633 0.038739
1588 1 0.679563 0.583776 0.0374797
8657 1 0.824175 0.55748 0.0321437
8658 1 0.833312 0.568492 0.0199996
8656 1 0.825098 0.564515 0.0492346
8659 1 0.851658 0.566365 0.0216376
8660 1 0.860091 0.57149 0.00561189
8655 1 0.816051 0.58023 0.0496148
3477 1 0.971429 0.545874 0.0214596
3478 1 0.989601 0.544429 0.0168127
3476 1 0.963655 0.561028 0.0147625
3504 1 0.0050589 0.602625 0.0151623
3623 1 0.0245067 0.642893 0.0551876
3620 1 0.0529415 0.621871 0.0521838
3621 1 0.0537335 0.6395 0.057139
3622 1 0.0404528 0.648333 0.0477864
3624 1 0.00944886 0.651276 0.0479721
3619 1 0.0638496 0.611339 0.0627847
3613 1 0.130277 0.617927 0.00624619
3614 1 0.128022 0.618821 0.0240742
3615 1 0.110885 0.612123 0.0248412
3617 1 0.0869222 0.608285 0.0433772
3616 1 0.10452 0.614125 0.0416938
3618 1 0.0816713 0.614399 0.0601184
3597 1 0.15942 0.66011 0.0482571
3598 1 0.164618 0.662452 0.0305722
3599 1 0.15074 0.666569 0.0193856
1593 1 0.616485 0.601004 0.0591227
1590 1 0.656853 0.604631 0.0373424
1591 1 0.6426 0.61069 0.0472795
1561 1 0.609106 0.655477 0.00147319
1564 1 0.640847 0.653164 0.0236362
1563 1 0.640337 0.660373 0.00640053
1565 1 0.65623 0.658149 0.0322555
1566 1 0.672153 0.650098 0.0255069
1567 1 0.686386 0.658988 0.0325997
1568 1 0.685583 0.659379 0.0508213
1569 1 0.702085 0.66177 0.0585003
8649 1 0.82125 0.655275 0.0511912
8648 1 0.830579 0.664567 0.0383329
8650 1 0.816655 0.638418 0.0452238
8652 1 0.804306 0.612921 0.0569452
8647 1 0.846718 0.655441 0.036276
8651 1 0.806455 0.631369 0.0589308
8646 1 0.857268 0.666361 0.0257776
8631 1 0.914387 0.605254 0.00969209
8630 1 0.919271 0.619018 0.0210342
8628 1 0.905857 0.605447 0.0455738
8629 1 0.921599 0.612294 0.0383513
8627 1 0.894279 0.61909 0.0491421
8626 1 0.880922 0.615182 0.0610186
8645 1 0.874467 0.660123 0.0234602
3625 1 0.994283 0.642247 0.0542743
3626 1 0.979492 0.649893 0.0459865
3628 1 0.961754 0.653128 0.0224591
3629 1 0.960685 0.653545 0.00400387
3627 1 0.978791 0.648457 0.0275612
3636 1 0.0148798 0.680367 0.000844665
3553 1 0.0442855 0.70594 0.0583124
3554 1 0.0428613 0.724043 0.0558344
3555 1 0.0594159 0.73238 0.0557419
3566 1 0.0894095 0.684092 0.0553834
3565 1 0.0877388 0.684251 0.0369844
3564 1 0.10423 0.677619 0.0312028
3562 1 0.105909 0.697226 0.0078532
3563 1 0.105583 0.679293 0.0126702
3560 1 0.120544 0.724453 0.0146192
3561 1 0.120718 0.70536 0.0151825
3556 1 0.0690813 0.729574 0.040102
3558 1 0.0950031 0.732003 0.0284714
3559 1 0.113233 0.730696 0.0307163
3567 1 0.104237 0.694554 0.0610321
3600 1 0.157672 0.675784 0.00499245
3596 1 0.149959 0.674798 0.0547752
3595 1 0.159785 0.691051 0.0553123
3593 1 0.180855 0.70908 0.0659636
9836 1 0.355284 0.703749 0.00711958
9835 1 0.359296 0.7211 0.00175382
9834 1 0.365219 0.731213 0.0162997
1557 1 0.560083 0.688822 0.00562231
1558 1 0.578823 0.689429 0.00491579
1559 1 0.586115 0.672759 0.00706334
1556 1 0.554626 0.698983 0.0198297
1555 1 0.555375 0.688683 0.0352633
1552 1 0.58596 0.698141 0.0528543
1553 1 0.571394 0.709951 0.0496145
1554 1 0.555181 0.700621 0.0499997
1551 1 0.602317 0.707798 0.0505642
1560 1 0.603998 0.672897 0.000878993
1550 1 0.616173 0.695909 0.0474568
1549 1 0.627121 0.695098 0.0624502
8685 1 0.721022 0.723387 0.0148417
8684 1 0.725527 0.706576 0.0212831
8683 1 0.729152 0.6944 0.00766061
8679 1 0.775676 0.67051 0.0246588
8680 1 0.762454 0.677092 0.0356941
8681 1 0.751905 0.688824 0.0264599
8682 1 0.737556 0.680828 0.0168909
8678 1 0.789429 0.682811 0.0260096
8686 1 0.736636 0.732059 0.00913314
8677 1 0.801011 0.679403 0.0122456
8676 1 0.809882 0.693324 0.00585652
8699 1 0.837925 0.72447 0.0439317
8700 1 0.824764 0.713847 0.0511152
8701 1 0.82015 0.722462 0.0662401
8644 1 0.884566 0.670545 0.0124274
8643 1 0.887547 0.688092 0.0183259
8641 1 0.914024 0.688645 0.00379326
8642 1 0.896802 0.695462 0.00393857
3639 1 0.981019 0.692931 0.0202029
3638 1 0.996319 0.701619 0.012548
3640 1 0.976393 0.702061 0.03592
3641 1 0.971226 0.719676 0.0317054
3642 1 0.975454 0.731693 0.045356
3793 1 0.0608133 0.794542 0.00411464
3557 1 0.0862226 0.734503 0.0442339
1 1 0.0818126 0.782589 0.0498217
2 1 0.0953076 0.774812 0.0588244
3780 1 0.15998 0.78253 0.00475695
3776 1 0.153364 0.778672 0.0549755
3777 1 0.161341 0.778609 0.0378896
3778 1 0.157814 0.763538 0.0273241
3779 1 0.167028 0.766755 0.0114793
3775 1 0.159127 0.794073 0.0632254
9828 1 0.331803 0.794447 0.0301146
9829 1 0.347125 0.784381 0.0333522
9830 1 0.358226 0.784362 0.0177999
9831 1 0.374841 0.776536 0.0209863
9832 1 0.373017 0.75883 0.0246992
9833 1 0.36823 0.748483 0.00995588
1167 1 0.390714 0.773427 0.0659831
1165 1 0.41902 0.7798 0.0619623
1166 1 0.406457 0.765966 0.0598933
1164 1 0.413539 0.795083 0.0527547
1257 1 0.462602 0.766561 0.0569815
1256 1 0.47122 0.778009 0.0451251
1255 1 0.488655 0.774753 0.0402717
1254 1 0.500394 0.781586 0.0522435
1522 1 0.655238 0.740346 0.0480666
1523 1 0.639038 0.747635 0.0535411
1520 1 0.661142 0.759726 0.0252696
1521 1 0.66606 0.754489 0.0425712
1518 1 0.67269 0.786601 0.0277268
1519 1 0.673175 0.771516 0.0181353
1516 1 0.701769 0.784858 0.0370386
1517 1 0.689111 0.794408 0.0276795
1515 1 0.706657 0.793631 0.0525687
8837 1 0.721846 0.736482 0.0639899
1514 1 0.692153 0.793973 0.0638638
8687 1 0.747286 0.734549 0.0241531
8688 1 0.764862 0.735833 0.0187226
8690 1 0.77084 0.763787 0.0303992
8689 1 0.768937 0.753735 0.0146241
8691 1 0.782922 0.757136 0.0414404
8692 1 0.789124 0.771294 0.0521425
8693 1 0.799465 0.782858 0.0427514
8696 1 0.834274 0.769479 0.0356103
8697 1 0.843785 0.753844 0.0374857
8695 1 0.825267 0.772869 0.0514588
8698 1 0.830988 0.741635 0.0434504
8694 1 0.814381 0.787571 0.0516599
3648 1 0.914943 0.754631 0.00741909
3649 1 0.901848 0.751886 0.0201055
3650 1 0.88902 0.741235 0.0135759
3651 1 0.878801 0.750789 0.00249084
3647 1 0.93104 0.755631 0.0151632
3646 1 0.930992 0.767187 0.0300462
3644 1 0.95258 0.751599 0.0441741
3643 1 0.970869 0.749072 0.041212
3645 1 0.947452 0.768097 0.0386105
3734 1 0.0358273 0.824973 0.0572712
3733 1 0.0222576 0.816955 0.0485168
3732 1 0.0113693 0.827555 0.0381611
3768 1 0.101483 0.843616 0.0528976
3769 1 0.116957 0.854054 0.0504595
3770 1 0.126477 0.851602 0.0346439
3767 1 0.102959 0.827824 0.0623489
3771 1 0.138086 0.837246 0.0373656
3772 1 0.147134 0.838879 0.0531891
3773 1 0.158499 0.824791 0.0576536
3774 1 0.150671 0.808429 0.0550442
1077 1 0.238413 0.836781 0.058664
1078 1 0.254378 0.843885 0.0533414
1079 1 0.256493 0.861235 0.0600991
9826 1 0.320455 0.82097 0.0215696
9825 1 0.313545 0.814347 0.00532863
9827 1 0.336493 0.812294 0.0257997
1163 1 0.426383 0.808746 0.0519946
1151 1 0.431736 0.85288 0.00599635
1154 1 0.451944 0.864826 0.0270288
1153 1 0.460307 0.854843 0.0134852
1155 1 0.460255 0.863203 0.0434333
1253 1 0.498504 0.800133 0.0521963
1252 1 0.510415 0.80738 0.0646752
3696 1 0.71758 0.850771 0.00700501
3697 1 0.729994 0.837093 0.00429891
3698 1 0.727828 0.824601 0.0175402
3699 1 0.739183 0.810172 0.014842
3700 1 0.756441 0.816907 0.0128907
3701 1 0.767352 0.80766 0.00161119
3702 1 0.782712 0.817502 7.20401e-05
2959 1 0.792482 0.841089 0.058733
2958 1 0.808449 0.836396 0.0505786
2957 1 0.820642 0.849903 0.0514169
3717 1 0.869524 0.812047 0.0369797
3718 1 0.872068 0.811544 0.0554684
3715 1 0.880287 0.824893 0.0116357
3716 1 0.882533 0.82292 0.0299097
3714 1 0.890475 0.838977 0.00558092
3719 1 0.869432 0.829109 0.0608118
3669 1 0.941375 0.842296 0.00933279
3668 1 0.94671 0.824299 0.00847796
3730 1 0.996617 0.84269 0.0600114
3731 1 0.9945 0.830741 0.0464267
3670 1 0.950901 0.849247 0.0238926
3986 1 0.029692 0.918707 0.0116932
3987 1 0.044111 0.915253 0.0227394
3988 1 0.0603296 0.917325 0.0138002
3985 1 0.0144265 0.91547 0.0219043
3984 1 0.000809123 0.921255 0.0109437
3989 1 0.0746902 0.916424 0.0263377
3991 1 0.077071 0.92279 0.0558741
3990 1 0.073896 0.929598 0.0391227
5121 1 0.191694 0.887164 0.0159189
5122 1 0.182647 0.873438 0.00726103
5120 1 0.188904 0.903661 0.00800585
5119 1 0.20192 0.914863 0.0143379
1048 1 0.220959 0.91451 0.064152
1047 1 0.233555 0.922739 0.0535051
5118 1 0.218347 0.906747 0.0106538
5115 1 0.251962 0.906793 0.0159128
5117 1 0.229304 0.918403 0.00158621
5113 1 0.264821 0.884121 0.00614355
1080 1 0.272292 0.869874 0.0547223
5114 1 0.26928 0.899999 0.0150724
1147 1 0.3892 0.874789 0.00821499
1145 1 0.360294 0.870872 0.0178356
1146 1 0.371499 0.878823 0.00612553
1144 1 0.361466 0.87869 0.0339941
1143 1 0.346916 0.875389 0.0444859
9554 1 0.360339 0.928912 0.0337225
9553 1 0.353455 0.926068 0.0504742
9551 1 0.382266 0.92428 0.0604066
1142 1 0.35182 0.882289 0.0608956
1156 1 0.451035 0.872277 0.0565008
9547 1 0.43034 0.923913 0.0378089
9548 1 0.413544 0.926652 0.0437664
9549 1 0.412163 0.930642 0.0614905
9525 1 0.519767 0.891775 0.0575145
9526 1 0.504036 0.89803 0.0650156
9528 1 0.477095 0.911808 0.0555756
9527 1 0.491403 0.900609 0.0513288
9524 1 0.526888 0.904265 0.0454154
9522 1 0.533037 0.92784 0.0654366
9529 1 0.481286 0.930109 0.058465
9523 1 0.539434 0.916151 0.0524731
9506 1 0.608889 0.929199 0.0398221
9504 1 0.633251 0.925211 0.0227512
9505 1 0.626957 0.931981 0.0390719
9503 1 0.651036 0.930705 0.0213782
3694 1 0.737024 0.874329 0.00761838
3692 1 0.761436 0.891081 0.00519046
2902 1 0.777679 0.92913 0.0365932
3681 1 0.857018 0.869603 0.0273733
3682 1 0.852063 0.878541 0.0119363
3683 1 0.833593 0.879129 0.0113659
3680 1 0.863047 0.8818 0.0393176
2899 1 0.812235 0.927711 0.0484357
3676 1 0.910454 0.895394 0.0612612
3677 1 0.895628 0.887502 0.0544143
3678 1 0.885743 0.899832 0.0445605
3679 1 0.877131 0.890365 0.0318876
3671 1 0.947199 0.867957 0.0268388
3672 1 0.948178 0.870146 0.0447987
3673 1 0.944369 0.888183 0.0498107
3983 1 0.985525 0.923732 0.0210165
3982 1 0.971695 0.927422 0.00927541
3997 1 0.0104741 0.965254 0.0376019
3998 1 0.0142198 0.976934 0.0244772
3999 1 0.0228789 0.967614 0.0112203
3995 1 0.0242869 0.948873 0.0593552
3996 1 0.026145 0.958954 0.0446567
3993 1 0.0515719 0.937412 0.0589526
5167 1 0.0630965 0.992101 0.0417979
5166 1 0.0644096 0.986967 0.0597048
5160 1 0.13051 0.998169 0.0481822
5164 1 0.0929862 0.988908 0.0657373
5165 1 0.0795298 0.976567 0.0606627
5161 1 0.117609 0.988151 0.0400728
5162 1 0.114003 0.973774 0.050807
1039 1 0.180101 0.985672 0.0660138
1040 1 0.18561 0.976977 0.0501478
1041 1 0.203293 0.981444 0.0475542
1042 1 0.211349 0.969625 0.0367471
1043 1 0.226993 0.966517 0.0456594
1044 1 0.237266 0.955253 0.0355138
1045 1 0.249608 0.947664 0.0469917
1046 1 0.24071 0.938031 0.0607959
9179 1 0.289213 0.99424 0.000316641
9559 1 0.384524 0.995919 0.0172856
9557 1 0.375169 0.967855 0.0118255
9558 1 0.384614 0.978896 0.0231813
9555 1 0.361675 0.947144 0.0302054
9556 1 0.375629 0.950898 0.0185937
9552 1 0.366292 0.933609 0.0611816
9550 1 0.395109 0.936928 0.0642216
9544 1 0.439315 0.938839 0.00728328
9545 1 0.436697 0.950095 0.0223379
9546 1 0.440046 0.93929 0.0369231
4961 1 0.455119 0.995581 0.0458416
4962 1 0.459264 0.981702 0.0576118
9533 1 0.514496 0.941998 0.0221149
9534 1 0.512249 0.937574 0.00446044
9532 1 0.502846 0.955146 0.0271261
9530 1 0.486828 0.937381 0.0420738